HEADER
"PSFversion" "1.00"
"simulator" "KSI"
"runtype" "Transient Analysis"
TYPE
"node" FLOAT DOUBLE PROP(
"key" "node"
)
"branch" FLOAT DOUBLE PROP(
"key" "branch"
)
"sweep" FLOAT DOUBLE
SWEEP
"time" "sweep"
TRACE
"group" GROUP 5
"v(vdd)" "node"
"v(vin)" "node"
"v(vout)" "node"
"i1(c1)" "branch"
"i2(m1)" "branch"
VALUE
"time" 0.000000e+000
"group"
5.000000e+000
5.000000e+000
1.669891e-002
3.350815e-004
-0.000000e+000
"time" 5.000000e-011
"group"
5.000000e+000
4.950000e+000
1.604309e-002
0.000000e+000
-0.000000e+000
"time" 1.000000e-010
"group"
5.000000e+000
4.900000e+000
1.541181e-002
0.000000e+000
-0.000000e+000
"time" 1.500000e-010
"group"
5.000000e+000
4.850000e+000
1.480393e-002
0.000000e+000
-0.000000e+000
"time" 2.000000e-010
"group"
5.000000e+000
4.800000e+000
1.421837e-002
0.000000e+000
-0.000000e+000
"time" 2.500000e-010
"group"
5.000000e+000
4.750000e+000
1.365409e-002
0.000000e+000
-0.000000e+000
"time" 3.000000e-010
"group"
5.000000e+000
4.700000e+000
1.311013e-002
0.000000e+000
-0.000000e+000
"time" 3.500000e-010
"group"
5.000000e+000
4.650000e+000
1.258554e-002
0.000000e+000
-0.000000e+000
"time" 4.000000e-010
"group"
5.000000e+000
4.600000e+000
1.207944e-002
0.000000e+000
-0.000000e+000
"time" 4.500000e-010
"group"
5.000000e+000
4.550000e+000
1.159098e-002
0.000000e+000
-0.000000e+000
"time" 5.000000e-010
"group"
5.000000e+000
4.500000e+000
1.111937e-002
0.000000e+000
-0.000000e+000
"time" 5.500000e-010
"group"
5.000000e+000
4.450000e+000
1.066384e-002
0.000000e+000
-0.000000e+000
"time" 6.000000e-010
"group"
5.000000e+000
4.400000e+000
1.022366e-002
0.000000e+000
-0.000000e+000
"time" 6.500000e-010
"group"
5.000000e+000
4.350000e+000
9.798132e-003
0.000000e+000
-0.000000e+000
"time" 7.000000e-010
"group"
5.000000e+000
4.300000e+000
9.386601e-003
0.000000e+000
-0.000000e+000
"time" 7.500000e-010
"group"
5.000000e+000
4.250000e+000
8.988435e-003
0.000000e+000
-0.000000e+000
"time" 8.000000e-010
"group"
5.000000e+000
4.200000e+000
8.603031e-003
0.000000e+000
-0.000000e+000
"time" 8.500000e-010
"group"
5.000000e+000
4.150000e+000
8.229816e-003
0.000000e+000
-0.000000e+000
"time" 9.000000e-010
"group"
5.000000e+000
4.100000e+000
7.868242e-003
0.000000e+000
-0.000000e+000
"time" 9.500000e-010
"group"
5.000000e+000
4.050000e+000
7.517787e-003
0.000000e+000
-0.000000e+000
"time" 1.000000e-009
"group"
5.000000e+000
4.000000e+000
7.177950e-003
0.000000e+000
-0.000000e+000
"time" 1.050000e-009
"group"
5.000000e+000
3.950000e+000
6.848257e-003
0.000000e+000
-0.000000e+000
"time" 1.100000e-009
"group"
5.000000e+000
3.900000e+000
6.528250e-003
0.000000e+000
-1.089874e-035
"time" 1.150000e-009
"group"
5.000000e+000
3.850000e+000
6.224252e-003
0.000000e+000
-1.381579e-007
"time" 1.200000e-009
"group"
5.000000e+000
3.800000e+000
5.949228e-003
0.000000e+000
-5.526316e-007
"time" 1.250000e-009
"group"
5.000000e+000
3.750000e+000
5.715900e-003
0.000000e+000
-1.243421e-006
"time" 1.300000e-009
"group"
5.000000e+000
3.700000e+000
5.536773e-003
0.000000e+000
-2.210526e-006
"time" 1.350000e-009
"group"
5.000000e+000
3.650000e+000
5.424151e-003
0.000000e+000
-3.453947e-006
"time" 1.400000e-009
"group"
5.000000e+000
3.600000e+000
5.390168e-003
0.000000e+000
-4.973684e-006
"time" 1.450000e-009
"group"
5.000000e+000
3.550000e+000
5.446798e-003
0.000000e+000
-6.769737e-006
"time" 1.500000e-009
"group"
5.000000e+000
3.500000e+000
5.605884e-003
0.000000e+000
-8.842105e-006
"time" 1.550000e-009
"group"
5.000000e+000
3.450000e+000
5.879151e-003
0.000000e+000
-1.119079e-005
"time" 1.600000e-009
"group"
5.000000e+000
3.400000e+000
6.278232e-003
0.000000e+000
-1.381579e-005
"time" 1.650000e-009
"group"
5.000000e+000
3.350000e+000
6.814678e-003
0.000000e+000
-1.671711e-005
"time" 1.700000e-009
"group"
5.000000e+000
3.300000e+000
7.499984e-003
0.000000e+000
-1.989474e-005
"time" 1.750000e-009
"group"
5.000000e+000
3.250000e+000
8.345603e-003
0.000000e+000
-2.334868e-005
"time" 1.800000e-009
"group"
5.000000e+000
3.200000e+000
9.359516e-003
2.034725e-005
-2.707895e-005
"time" 1.850000e-009
"group"
5.000000e+000
3.150000e+000
1.055603e-002
2.401176e-005
-3.108553e-005
"time" 1.900000e-009
"group"
5.000000e+000
3.100000e+000
1.194656e-002
2.790512e-005
-3.536842e-005
"time" 1.950000e-009
"group"
5.000000e+000
3.050000e+000
1.354252e-002
3.202792e-005
-3.992763e-005
"time" 2.000000e-009
"group"
5.000000e+000
3.000000e+000
1.535540e-002
3.638107e-005
-4.476316e-005
"time" 2.050000e-009
"group"
5.000000e+000
2.950000e+000
1.739675e-002
4.096583e-005
-4.987500e-005
"time" 2.100000e-009
"group"
5.000000e+000
2.900000e+000
1.967817e-002
4.578383e-005
-5.526316e-005
"time" 2.150000e-009
"group"
5.000000e+000
2.850000e+000
2.221139e-002
5.083700e-005
-6.092763e-005
"time" 2.200000e-009
"group"
5.000000e+000
2.800000e+000
2.500825e-002
5.612766e-005
-6.686842e-005
"time" 2.250000e-009
"group"
5.000000e+000
2.750000e+000
2.808071e-002
6.165846e-005
-7.308553e-005
"time" 2.300000e-009
"group"
5.000000e+000
2.700000e+000
3.144089e-002
6.743241e-005
-7.957895e-005
"time" 2.350000e-009
"group"
5.000000e+000
2.650000e+000
3.510106e-002
7.345289e-005
-8.634868e-005
"time" 2.400000e-009
"group"
5.000000e+000
2.600000e+000
3.907371e-002
7.972365e-005
-9.339474e-005
"time" 2.450000e-009
"group"
5.000000e+000
2.550000e+000
4.337151e-002
8.624881e-005
-1.007171e-004
"time" 2.500000e-009
"group"
5.000000e+000
2.500000e+000
4.800737e-002
9.303289e-005
-1.083158e-004
"time" 2.550000e-009
"group"
5.000000e+000
2.450000e+000
5.299442e-002
1.000808e-004
-1.161908e-004
"time" 2.600000e-009
"group"
5.000000e+000
2.400000e+000
5.834608e-002
1.073978e-004
-1.243421e-004
"time" 2.650000e-009
"group"
5.000000e+000
2.350000e+000
6.407604e-002
1.149898e-004
-1.327697e-004
"time" 2.700000e-009
"group"
5.000000e+000
2.300000e+000
7.019833e-002
1.228628e-004
-1.414737e-004
"time" 2.750000e-009
"group"
5.000000e+000
2.250000e+000
7.672726e-002
1.310235e-004
-1.504539e-004
"time" 2.800000e-009
"group"
5.000000e+000
2.200000e+000
8.367753e-002
1.394790e-004
-1.597105e-004
"time" 2.850000e-009
"group"
5.000000e+000
2.150000e+000
9.106421e-002
1.482369e-004
-1.692434e-004
"time" 2.900000e-009
"group"
5.000000e+000
2.100000e+000
9.890277e-002
1.573052e-004
-1.790526e-004
"time" 2.950000e-009
"group"
5.000000e+000
2.050000e+000
1.072091e-001
1.666927e-004
-1.891382e-004
"time" 3.000000e-009
"group"
5.000000e+000
2.000000e+000
1.159996e-001
1.764084e-004
-1.995000e-004
"time" 3.050000e-009
"group"
5.000000e+000
1.950000e+000
1.252911e-001
1.864622e-004
-2.101382e-004
"time" 3.100000e-009
"group"
5.000000e+000
1.900000e+000
1.351009e-001
1.968644e-004
-2.210526e-004
"time" 3.150000e-009
"group"
5.000000e+000
1.850000e+000
1.454470e-001
2.076260e-004
-2.322434e-004
"time" 3.200000e-009
"group"
5.000000e+000
1.800000e+000
1.563478e-001
2.187588e-004
-2.437105e-004
"time" 3.250000e-009
"group"
5.000000e+000
1.750000e+000
1.678225e-001
2.302750e-004
-2.554539e-004
"time" 3.300000e-009
"group"
5.000000e+000
1.700000e+000
1.798908e-001
2.421878e-004
-2.674737e-004
"time" 3.350000e-009
"group"
5.000000e+000
1.650000e+000
1.925733e-001
2.545112e-004
-2.797697e-004
"time" 3.400000e-009
"group"
5.000000e+000
1.600000e+000
2.058910e-001
2.672599e-004
-2.923421e-004
"time" 3.450000e-009
"group"
5.000000e+000
1.550000e+000
2.198659e-001
2.804496e-004
-3.051908e-004
"time" 3.500000e-009
"group"
5.000000e+000
1.500000e+000
2.345209e-001
2.940968e-004
-3.183158e-004
"time" 3.550000e-009
"group"
5.000000e+000
1.450000e+000
2.498797e-001
3.082190e-004
-3.317171e-004
"time" 3.600000e-009
"group"
5.000000e+000
1.400000e+000
2.659668e-001
3.228350e-004
-3.453947e-004
"time" 3.650000e-009
"group"
5.000000e+000
1.350000e+000
2.828078e-001
3.379644e-004
-3.593487e-004
"time" 3.700000e-009
"group"
5.000000e+000
1.300000e+000
3.004294e-001
3.536283e-004
-3.735789e-004
"time" 3.750000e-009
"group"
5.000000e+000
1.250000e+000
3.188593e-001
3.698487e-004
-3.880855e-004
"time" 3.800000e-009
"group"
5.000000e+000
1.200000e+000
3.381264e-001
3.866493e-004
-4.028684e-004
"time" 3.850000e-009
"group"
5.000000e+000
1.150000e+000
3.582609e-001
4.040551e-004
-4.179276e-004
"time" 3.900000e-009
"group"
5.000000e+000
1.100000e+000
3.795309e-001
4.254019e-004
-4.332632e-004
"time" 3.950000e-009
"group"
5.000000e+000
1.050000e+000
4.016917e-001
4.432155e-004
-4.488750e-004
"time" 4.000000e-009
"group"
5.000000e+000
1.000000e+000
4.247389e-001
4.609444e-004
-4.647632e-004
"time" 4.050000e-009
"group"
5.000000e+000
9.500000e-001
4.486684e-001
4.785888e-004
-4.809276e-004
"time" 4.100000e-009
"group"
5.000000e+000
9.000000e-001
4.734758e-001
4.961485e-004
-4.973684e-004
"time" 4.150000e-009
"group"
5.000000e+000
8.500000e-001
4.991570e-001
5.136235e-004
-5.140855e-004
"time" 4.200000e-009
"group"
5.000000e+000
8.000000e-001
5.257077e-001
5.310140e-004
-5.310789e-004
"time" 4.250000e-009
"group"
5.000000e+000
7.500000e-001
5.531251e-001
5.483487e-004
-5.483487e-004
"time" 4.300000e-009
"group"
5.000000e+000
7.000000e-001
5.814199e-001
5.658947e-004
-5.658947e-004
"time" 4.350000e-009
"group"
5.000000e+000
6.500000e-001
6.106057e-001
5.837171e-004
-5.837171e-004
"time" 4.400000e-009
"group"
5.000000e+000
6.000000e-001
6.406965e-001
6.018158e-004
-6.018158e-004
"time" 4.450000e-009
"group"
5.000000e+000
5.500000e-001
6.717060e-001
6.201908e-004
-6.201908e-004
"time" 4.500000e-009
"group"
5.000000e+000
5.000000e-001
7.036481e-001
6.388421e-004
-6.388421e-004
"time" 4.550000e-009
"group"
5.000000e+000
4.500000e-001
7.365366e-001
6.577697e-004
-6.577697e-004
"time" 4.600000e-009
"group"
5.000000e+000
4.000000e-001
7.703853e-001
6.769737e-004
-6.769737e-004
"time" 4.650000e-009
"group"
5.000000e+000
3.500000e-001
8.052080e-001
6.964539e-004
-6.964539e-004
"time" 4.700000e-009
"group"
5.000000e+000
3.000000e-001
8.410185e-001
7.162105e-004
-7.162105e-004
"time" 4.750000e-009
"group"
5.000000e+000
2.500000e-001
8.778307e-001
7.362434e-004
-7.362434e-004
"time" 4.800000e-009
"group"
5.000000e+000
2.000000e-001
9.156583e-001
7.565526e-004
-7.565526e-004
"time" 4.850000e-009
"group"
5.000000e+000
1.500000e-001
9.545152e-001
7.771382e-004
-7.771382e-004
"time" 4.900000e-009
"group"
5.000000e+000
1.000000e-001
9.944152e-001
7.980000e-004
-7.980000e-004
"time" 4.950000e-009
"group"
5.000000e+000
5.000000e-002
1.035372e+000
8.191382e-004
-8.191382e-004
"time" 5.000000e-009
"group"
5.000000e+000
7.993606e-015
1.077400e+000
8.405526e-004
-8.405526e-004
"time" 5.050000e-009
"group"
5.000000e+000
0.000000e+000
1.119910e+000
8.405526e-004
-8.405318e-004
"time" 5.100000e-009
"group"
5.000000e+000
0.000000e+000
1.162411e+000
8.404383e-004
-8.403407e-004
"time" 5.150000e-009
"group"
5.000000e+000
0.000000e+000
1.204891e+000
8.400476e-004
-8.399501e-004
"time" 5.200000e-009
"group"
5.000000e+000
0.000000e+000
1.247342e+000
8.394580e-004
-8.393607e-004
"time" 5.250000e-009
"group"
5.000000e+000
0.000000e+000
1.289753e+000
8.386700e-004
-8.385728e-004
"time" 5.300000e-009
"group"
5.000000e+000
0.000000e+000
1.332114e+000
8.376844e-004
-8.375874e-004
"time" 5.350000e-009
"group"
5.000000e+000
0.000000e+000
1.374415e+000
8.365022e-004
-8.364055e-004
"time" 5.400000e-009
"group"
5.000000e+000
0.000000e+000
1.416646e+000
8.351247e-004
-8.350283e-004
"time" 5.450000e-009
"group"
5.000000e+000
0.000000e+000
1.458798e+000
8.335531e-004
-8.334571e-004
"time" 5.500000e-009
"group"
5.000000e+000
0.000000e+000
1.500860e+000
8.317890e-004
-8.316934e-004
"time" 5.550000e-009
"group"
5.000000e+000
0.000000e+000
1.542823e+000
8.298342e-004
-8.297390e-004
"time" 5.600000e-009
"group"
5.000000e+000
0.000000e+000
1.584678e+000
8.276904e-004
-8.275958e-004
"time" 5.650000e-009
"group"
5.000000e+000
0.000000e+000
1.626415e+000
8.253599e-004
-8.252658e-004
"time" 5.700000e-009
"group"
5.000000e+000
0.000000e+000
1.668025e+000
8.228447e-004
-8.227512e-004
"time" 5.750000e-009
"group"
5.000000e+000
0.000000e+000
1.709498e+000
8.201473e-004
-8.200544e-004
"time" 5.800000e-009
"group"
5.000000e+000
0.000000e+000
1.750826e+000
8.172702e-004
-8.171780e-004
"time" 5.850000e-009
"group"
5.000000e+000
0.000000e+000
1.791999e+000
8.142161e-004
-8.141245e-004
"time" 5.900000e-009
"group"
5.000000e+000
0.000000e+000
1.833008e+000
8.109878e-004
-8.108969e-004
"time" 5.950000e-009
"group"
5.000000e+000
0.000000e+000
1.873846e+000
8.075883e-004
-8.074982e-004
"time" 6.000000e-009
"group"
5.000000e+000
0.000000e+000
1.914503e+000
8.040206e-004
-8.039312e-004
"time" 6.050000e-009
"group"
5.000000e+000
0.000000e+000
1.954972e+000
8.002879e-004
-8.001994e-004
"time" 6.100000e-009
"group"
5.000000e+000
0.000000e+000
1.995243e+000
7.963937e-004
-7.963061e-004
"time" 6.150000e-009
"group"
5.000000e+000
0.000000e+000
2.035310e+000
7.923414e-004
-7.922546e-004
"time" 6.200000e-009
"group"
5.000000e+000
0.000000e+000
2.075163e+000
7.881345e-004
-7.880487e-004
"time" 6.250000e-009
"group"
5.000000e+000
0.000000e+000
2.114796e+000
7.837767e-004
-7.836918e-004
"time" 6.300000e-009
"group"
5.000000e+000
0.000000e+000
2.154202e+000
7.792718e-004
-7.791879e-004
"time" 6.350000e-009
"group"
5.000000e+000
0.000000e+000
2.193372e+000
7.746236e-004
-7.745407e-004
"time" 6.400000e-009
"group"
5.000000e+000
0.000000e+000
2.232300e+000
7.698360e-004
-7.697541e-004
"time" 6.450000e-009
"group"
5.000000e+000
0.000000e+000
2.270979e+000
7.649132e-004
-7.648323e-004
"time" 6.500000e-009
"group"
5.000000e+000
0.000000e+000
2.309402e+000
7.598590e-004
-7.597793e-004
"time" 6.550000e-009
"group"
5.000000e+000
0.000000e+000
2.347564e+000
7.546778e-004
-7.545991e-004
"time" 6.600000e-009
"group"
5.000000e+000
0.000000e+000
2.385457e+000
7.493737e-004
-7.492961e-004
"time" 6.650000e-009
"group"
5.000000e+000
0.000000e+000
2.423076e+000
7.439509e-004
-7.438745e-004
"time" 6.700000e-009
"group"
5.000000e+000
0.000000e+000
2.460414e+000
7.384138e-004
-7.383385e-004
"time" 6.750000e-009
"group"
5.000000e+000
0.000000e+000
2.497467e+000
7.327666e-004
-7.326924e-004
"time" 6.800000e-009
"group"
5.000000e+000
0.000000e+000
2.534230e+000
7.270137e-004
-7.269407e-004
"time" 6.850000e-009
"group"
5.000000e+000
0.000000e+000
2.570696e+000
7.211596e-004
-7.210877e-004
"time" 6.900000e-009
"group"
5.000000e+000
0.000000e+000
2.606861e+000
7.152085e-004
-7.151378e-004
"time" 6.950000e-009
"group"
5.000000e+000
0.000000e+000
2.642720e+000
7.091650e-004
-7.090955e-004
"time" 7.000000e-009
"group"
5.000000e+000
0.000000e+000
2.678270e+000
7.030333e-004
-7.029650e-004
"time" 7.050000e-009
"group"
5.000000e+000
0.000000e+000
2.713505e+000
6.968180e-004
-6.967509e-004
"time" 7.100000e-009
"group"
5.000000e+000
0.000000e+000
2.748422e+000
6.905234e-004
-6.904575e-004
"time" 7.150000e-009
"group"
5.000000e+000
0.000000e+000
2.783016e+000
6.841540e-004
-6.840893e-004
"time" 7.200000e-009
"group"
5.000000e+000
0.000000e+000
2.817285e+000
6.777140e-004
-6.776505e-004
"time" 7.250000e-009
"group"
5.000000e+000
0.000000e+000
2.851225e+000
6.712079e-004
-6.711456e-004
"time" 7.300000e-009
"group"
5.000000e+000
0.000000e+000
2.884833e+000
6.646399e-004
-6.645789e-004
"time" 7.350000e-009
"group"
5.000000e+000
0.000000e+000
2.918106e+000
6.580144e-004
-6.579546e-004
"time" 7.400000e-009
"group"
5.000000e+000
0.000000e+000
2.951040e+000
6.513356e-004
-6.512770e-004
"time" 7.450000e-009
"group"
5.000000e+000
0.000000e+000
2.983635e+000
6.446077e-004
-6.445503e-004
"time" 7.500000e-009
"group"
5.000000e+000
0.000000e+000
3.015887e+000
6.378349e-004
-6.377787e-004
"time" 7.550000e-009
"group"
5.000000e+000
0.000000e+000
3.047795e+000
6.310212e-004
-6.309662e-004
"time" 7.600000e-009
"group"
5.000000e+000
0.000000e+000
3.079356e+000
6.241708e-004
-6.241170e-004
"time" 7.650000e-009
"group"
5.000000e+000
0.000000e+000
3.110569e+000
6.172876e-004
-6.172349e-004
"time" 7.700000e-009
"group"
5.000000e+000
0.000000e+000
3.141433e+000
6.103755e-004
-6.103241e-004
"time" 7.750000e-009
"group"
5.000000e+000
0.000000e+000
3.171946e+000
6.034385e-004
-6.033882e-004
"time" 7.800000e-009
"group"
5.000000e+000
0.000000e+000
3.202107e+000
5.964803e-004
-5.964312e-004
"time" 7.850000e-009
"group"
5.000000e+000
0.000000e+000
3.231915e+000
5.895047e-004
-5.894567e-004
"time" 7.900000e-009
"group"
5.000000e+000
0.000000e+000
3.261370e+000
5.825152e-004
-5.824683e-004
"time" 7.950000e-009
"group"
5.000000e+000
0.000000e+000
3.290470e+000
5.755156e-004
-5.754698e-004
"time" 8.000000e-009
"group"
5.000000e+000
0.000000e+000
3.319217e+000
5.685092e-004
-5.684645e-004
"time" 8.050000e-009
"group"
5.000000e+000
0.000000e+000
3.347609e+000
5.614995e-004
-5.614560e-004
"time" 8.100000e-009
"group"
5.000000e+000
0.000000e+000
3.375646e+000
5.544899e-004
-5.544474e-004
"time" 8.150000e-009
"group"
5.000000e+000
0.000000e+000
3.403330e+000
5.474836e-004
-5.474421e-004
"time" 8.200000e-009
"group"
5.000000e+000
0.000000e+000
3.430659e+000
5.404837e-004
-5.404433e-004
"time" 8.250000e-009
"group"
5.000000e+000
0.000000e+000
3.457635e+000
5.334934e-004
-5.334540e-004
"time" 8.300000e-009
"group"
5.000000e+000
0.000000e+000
3.484258e+000
5.265156e-004
-5.264773e-004
"time" 8.350000e-009
"group"
5.000000e+000
0.000000e+000
3.510529e+000
5.195533e-004
-5.195160e-004
"time" 8.400000e-009
"group"
5.000000e+000
0.000000e+000
3.536448e+000
5.126092e-004
-5.125729e-004
"time" 8.450000e-009
"group"
5.000000e+000
0.000000e+000
3.562018e+000
5.056861e-004
-5.056508e-004
"time" 8.500000e-009
"group"
5.000000e+000
0.000000e+000
3.587239e+000
4.987867e-004
-4.987523e-004
"time" 8.550000e-009
"group"
5.000000e+000
0.000000e+000
3.612112e+000
4.919135e-004
-4.918801e-004
"time" 8.600000e-009
"group"
5.000000e+000
0.000000e+000
3.636639e+000
4.850689e-004
-4.850364e-004
"time" 8.650000e-009
"group"
5.000000e+000
0.000000e+000
3.660822e+000
4.782554e-004
-4.782238e-004
"time" 8.700000e-009
"group"
5.000000e+000
0.000000e+000
3.684662e+000
4.714751e-004
-4.714444e-004
"time" 8.750000e-009
"group"
5.000000e+000
0.000000e+000
3.708160e+000
4.647304e-004
-4.647005e-004
"time" 8.800000e-009
"group"
5.000000e+000
0.000000e+000
3.731320e+000
4.580232e-004
-4.579942e-004
"time" 8.850000e-009
"group"
5.000000e+000
0.000000e+000
3.754142e+000
4.513557e-004
-4.513276e-004
"time" 8.900000e-009
"group"
5.000000e+000
0.000000e+000
3.776630e+000
4.447297e-004
-4.447024e-004
"time" 8.950000e-009
"group"
5.000000e+000
0.000000e+000
3.798784e+000
4.381472e-004
-4.381206e-004
"time" 9.000000e-009
"group"
5.000000e+000
0.000000e+000
3.820608e+000
4.316097e-004
-4.315840e-004
"time" 9.050000e-009
"group"
5.000000e+000
0.000000e+000
3.842104e+000
4.251192e-004
-4.250942e-004
"time" 9.100000e-009
"group"
5.000000e+000
0.000000e+000
3.863274e+000
4.186770e-004
-4.186528e-004
"time" 9.150000e-009
"group"
5.000000e+000
0.000000e+000
3.884121e+000
4.122848e-004
-4.122613e-004
"time" 9.200000e-009
"group"
5.000000e+000
0.000000e+000
3.904647e+000
4.059439e-004
-4.059212e-004
"time" 9.250000e-009
"group"
5.000000e+000
0.000000e+000
3.924855e+000
3.996558e-004
-3.996337e-004
"time" 9.300000e-009
"group"
5.000000e+000
0.000000e+000
3.944748e+000
3.934216e-004
-3.934002e-004
"time" 9.350000e-009
"group"
5.000000e+000
0.000000e+000
3.964329e+000
3.872427e-004
-3.872219e-004
"time" 9.400000e-009
"group"
5.000000e+000
0.000000e+000
3.983599e+000
3.811200e-004
-3.810999e-004
"time" 9.450000e-009
"group"
5.000000e+000
0.000000e+000
4.002564e+000
3.750547e-004
-3.750352e-004
"time" 9.500000e-009
"group"
5.000000e+000
0.000000e+000
4.021224e+000
3.690477e-004
-3.690289e-004
"time" 9.550000e-009
"group"
5.000000e+000
0.000000e+000
4.039584e+000
3.630999e-004
-3.630817e-004
"time" 9.600000e-009
"group"
5.000000e+000
0.000000e+000
4.057646e+000
3.572123e-004
-3.571946e-004
"time" 9.650000e-009
"group"
5.000000e+000
0.000000e+000
4.075413e+000
3.513855e-004
-3.513684e-004
"time" 9.700000e-009
"group"
5.000000e+000
0.000000e+000
4.092889e+000
3.456202e-004
-3.456037e-004
"time" 9.750000e-009
"group"
5.000000e+000
0.000000e+000
4.110077e+000
3.399171e-004
-3.399011e-004
"time" 9.800000e-009
"group"
5.000000e+000
0.000000e+000
4.126979e+000
3.342768e-004
-3.342614e-004
"time" 9.850000e-009
"group"
5.000000e+000
0.000000e+000
4.143599e+000
3.286998e-004
-3.286849e-004
"time" 9.900000e-009
"group"
5.000000e+000
0.000000e+000
4.159941e+000
3.231866e-004
-3.231722e-004
"time" 9.950000e-009
"group"
5.000000e+000
0.000000e+000
4.176007e+000
3.177375e-004
-3.177236e-004
"time" 1.000000e-008
"group"
5.000000e+000
0.000000e+000
4.191801e+000
3.123530e-004
-3.123395e-004
"time" 1.005000e-008
"group"
5.000000e+000
0.000000e+000
4.207325e+000
3.070333e-004
-3.070203e-004
"time" 1.010000e-008
"group"
5.000000e+000
0.000000e+000
4.222584e+000
3.017787e-004
-3.017661e-004
"time" 1.015000e-008
"group"
5.000000e+000
0.000000e+000
4.237581e+000
2.965893e-004
-2.965772e-004
"time" 1.020000e-008
"group"
5.000000e+000
0.000000e+000
4.252319e+000
2.914654e-004
-2.914537e-004
"time" 1.025000e-008
"group"
5.000000e+000
0.000000e+000
4.266800e+000
2.864070e-004
-2.863957e-004
"time" 1.030000e-008
"group"
5.000000e+000
0.000000e+000
4.281030e+000
2.814142e-004
-2.814033e-004
"time" 1.035000e-008
"group"
5.000000e+000
0.000000e+000
4.295010e+000
2.764870e-004
-2.764765e-004
"time" 1.040000e-008
"group"
5.000000e+000
0.000000e+000
4.308744e+000
2.716255e-004
-2.716153e-004
"time" 1.045000e-008
"group"
5.000000e+000
0.000000e+000
4.322236e+000
2.668294e-004
-2.668196e-004
"time" 1.050000e-008
"group"
5.000000e+000
0.000000e+000
4.335489e+000
2.620988e-004
-2.620893e-004
"time" 1.055000e-008
"group"
5.000000e+000
0.000000e+000
4.348506e+000
2.574335e-004
-2.574243e-004
"time" 1.060000e-008
"group"
5.000000e+000
0.000000e+000
4.361290e+000
2.528333e-004
-2.528245e-004
"time" 1.065000e-008
"group"
5.000000e+000
0.000000e+000
4.373845e+000
2.482980e-004
-2.482895e-004
"time" 1.070000e-008
"group"
5.000000e+000
0.000000e+000
4.386173e+000
2.438275e-004
-2.438193e-004
"time" 1.075000e-008
"group"
5.000000e+000
0.000000e+000
4.398279e+000
2.394214e-004
-2.394134e-004
"time" 1.080000e-008
"group"
5.000000e+000
0.000000e+000
4.410166e+000
2.350794e-004
-2.350718e-004
"time" 1.085000e-008
"group"
5.000000e+000
0.000000e+000
4.421836e+000
2.308012e-004
-2.307939e-004
"time" 1.090000e-008
"group"
5.000000e+000
0.000000e+000
4.433293e+000
2.265865e-004
-2.265795e-004
"time" 1.095000e-008
"group"
5.000000e+000
0.000000e+000
4.444540e+000
2.224350e-004
-2.224281e-004
"time" 1.100000e-008
"group"
5.000000e+000
0.000000e+000
4.455580e+000
2.183461e-004
-2.183395e-004
"time" 1.105000e-008
"group"
5.000000e+000
0.000000e+000
4.466417e+000
2.143195e-004
-2.143132e-004
"time" 1.110000e-008
"group"
5.000000e+000
0.000000e+000
4.477053e+000
2.103548e-004
-2.103487e-004
"time" 1.115000e-008
"group"
5.000000e+000
0.000000e+000
4.487492e+000
2.064515e-004
-2.064457e-004
"time" 1.120000e-008
"group"
5.000000e+000
0.000000e+000
4.497737e+000
2.026092e-004
-2.026035e-004
"time" 1.125000e-008
"group"
5.000000e+000
0.000000e+000
4.507790e+000
1.988273e-004
-1.988218e-004
"time" 1.130000e-008
"group"
5.000000e+000
0.000000e+000
4.517656e+000
1.951053e-004
-1.951000e-004
"time" 1.135000e-008
"group"
5.000000e+000
0.000000e+000
4.527336e+000
1.914427e-004
-1.914376e-004
"time" 1.140000e-008
"group"
5.000000e+000
0.000000e+000
4.536833e+000
1.878390e-004
-1.878341e-004
"time" 1.145000e-008
"group"
5.000000e+000
0.000000e+000
4.546152e+000
1.842936e-004
-1.842889e-004
"time" 1.150000e-008
"group"
5.000000e+000
0.000000e+000
4.555294e+000
1.808060e-004
-1.808015e-004
"time" 1.155000e-008
"group"
5.000000e+000
0.000000e+000
4.564263e+000
1.773756e-004
-1.773712e-004
"time" 1.160000e-008
"group"
5.000000e+000
0.000000e+000
4.573061e+000
1.740018e-004
-1.739976e-004
"time" 1.165000e-008
"group"
5.000000e+000
0.000000e+000
4.581691e+000
1.706840e-004
-1.706799e-004
"time" 1.170000e-008
"group"
5.000000e+000
0.000000e+000
4.590157e+000
1.674216e-004
-1.674177e-004
"time" 1.175000e-008
"group"
5.000000e+000
0.000000e+000
4.598460e+000
1.642140e-004
-1.642103e-004
"time" 1.180000e-008
"group"
5.000000e+000
0.000000e+000
4.606604e+000
1.610606e-004
-1.610570e-004
"time" 1.185000e-008
"group"
5.000000e+000
0.000000e+000
4.614591e+000
1.579608e-004
-1.579574e-004
"time" 1.190000e-008
"group"
5.000000e+000
0.000000e+000
4.622424e+000
1.549139e-004
-1.549106e-004
"time" 1.195000e-008
"group"
5.000000e+000
0.000000e+000
4.630106e+000
1.519194e-004
-1.519162e-004
"time" 1.200000e-008
"group"
5.000000e+000
0.000000e+000
4.637638e+000
1.489765e-004
-1.489734e-004
"time" 1.205000e-008
"group"
5.000000e+000
0.000000e+000
4.645025e+000
1.460846e-004
-1.460817e-004
"time" 1.210000e-008
"group"
5.000000e+000
0.000000e+000
4.652268e+000
1.432432e-004
-1.432403e-004
"time" 1.215000e-008
"group"
5.000000e+000
0.000000e+000
4.659369e+000
1.404514e-004
-1.404487e-004
"time" 1.220000e-008
"group"
5.000000e+000
0.000000e+000
4.666332e+000
1.377088e-004
-1.377062e-004
"time" 1.225000e-008
"group"
5.000000e+000
0.000000e+000
4.673159e+000
1.350146e-004
-1.350121e-004
"time" 1.230000e-008
"group"
5.000000e+000
0.000000e+000
4.679852e+000
1.323683e-004
-1.323659e-004
"time" 1.235000e-008
"group"
5.000000e+000
0.000000e+000
4.686414e+000
1.297691e-004
-1.297668e-004
"time" 1.240000e-008
"group"
5.000000e+000
0.000000e+000
4.692846e+000
1.272164e-004
-1.272142e-004
"time" 1.245000e-008
"group"
5.000000e+000
0.000000e+000
4.699152e+000
1.247096e-004
-1.247074e-004
"time" 1.250000e-008
"group"
5.000000e+000
0.000000e+000
4.705333e+000
1.222479e-004
-1.222459e-004
"time" 1.255000e-008
"group"
5.000000e+000
0.000000e+000
4.711392e+000
1.198309e-004
-1.198289e-004
"time" 1.260000e-008
"group"
5.000000e+000
0.000000e+000
4.717331e+000
1.174578e-004
-1.174559e-004
"time" 1.265000e-008
"group"
5.000000e+000
0.000000e+000
4.723153e+000
1.151279e-004
-1.151261e-004
"time" 1.270000e-008
"group"
5.000000e+000
0.000000e+000
4.728858e+000
1.128408e-004
-1.128390e-004
"time" 1.275000e-008
"group"
5.000000e+000
0.000000e+000
4.734450e+000
1.105956e-004
-1.105939e-004
"time" 1.280000e-008
"group"
5.000000e+000
0.000000e+000
4.739931e+000
1.083918e-004
-1.083902e-004
"time" 1.285000e-008
"group"
5.000000e+000
0.000000e+000
4.745302e+000
1.062288e-004
-1.062272e-004
"time" 1.290000e-008
"group"
5.000000e+000
0.000000e+000
4.750566e+000
1.041059e-004
-1.041044e-004
"time" 1.295000e-008
"group"
5.000000e+000
0.000000e+000
4.755725e+000
1.020225e-004
-1.020211e-004
"time" 1.300000e-008
"group"
5.000000e+000
0.000000e+000
4.760780e+000
9.997800e-005
-9.997662e-005
"time" 1.305000e-008
"group"
5.000000e+000
0.000000e+000
4.765734e+000
9.797180e-005
-9.797047e-005
"time" 1.310000e-008
"group"
5.000000e+000
0.000000e+000
4.770588e+000
9.600327e-005
-9.600200e-005
"time" 1.315000e-008
"group"
5.000000e+000
0.000000e+000
4.775345e+000
9.407182e-005
-9.407060e-005
"time" 1.320000e-008
"group"
5.000000e+000
0.000000e+000
4.780006e+000
9.217685e-005
-9.217568e-005
"time" 1.325000e-008
"group"
5.000000e+000
0.000000e+000
4.784572e+000
9.031778e-005
-9.031665e-005
"time" 1.330000e-008
"group"
5.000000e+000
0.000000e+000
4.789047e+000
8.849400e-005
-8.849292e-005
"time" 1.335000e-008
"group"
5.000000e+000
0.000000e+000
4.793431e+000
8.670495e-005
-8.670391e-005
"time" 1.340000e-008
"group"
5.000000e+000
0.000000e+000
4.797726e+000
8.495005e-005
-8.494905e-005
"time" 1.345000e-008
"group"
5.000000e+000
0.000000e+000
4.801935e+000
8.322873e-005
-8.322777e-005
"time" 1.350000e-008
"group"
5.000000e+000
0.000000e+000
4.806058e+000
8.154042e-005
-8.153951e-005
"time" 1.355000e-008
"group"
5.000000e+000
0.000000e+000
4.810097e+000
7.988458e-005
-7.988370e-005
"time" 1.360000e-008
"group"
5.000000e+000
0.000000e+000
4.814054e+000
7.826065e-005
-7.825981e-005
"time" 1.365000e-008
"group"
5.000000e+000
0.000000e+000
4.817931e+000
7.666809e-005
-7.666728e-005
"time" 1.370000e-008
"group"
5.000000e+000
0.000000e+000
4.821728e+000
7.510636e-005
-7.510558e-005
"time" 1.375000e-008
"group"
5.000000e+000
0.000000e+000
4.825449e+000
7.357493e-005
-7.357418e-005
"time" 1.380000e-008
"group"
5.000000e+000
0.000000e+000
4.829093e+000
7.207327e-005
-7.207255e-005
"time" 1.385000e-008
"group"
5.000000e+000
0.000000e+000
4.832663e+000
7.060086e-005
-7.060017e-005
"time" 1.390000e-008
"group"
5.000000e+000
0.000000e+000
4.836159e+000
6.915719e-005
-6.915653e-005
"time" 1.395000e-008
"group"
5.000000e+000
0.000000e+000
4.839585e+000
6.774177e-005
-6.774113e-005
"time" 1.400000e-008
"group"
5.000000e+000
0.000000e+000
4.842940e+000
6.635407e-005
-6.635347e-005
"time" 1.405000e-008
"group"
5.000000e+000
0.000000e+000
4.846226e+000
6.499363e-005
-6.499305e-005
"time" 1.410000e-008
"group"
5.000000e+000
0.000000e+000
4.849445e+000
6.365994e-005
-6.365938e-005
"time" 1.415000e-008
"group"
5.000000e+000
0.000000e+000
4.852598e+000
6.235254e-005
-6.235200e-005
"time" 1.420000e-008
"group"
5.000000e+000
0.000000e+000
4.855686e+000
6.107094e-005
-6.107042e-005
"time" 1.425000e-008
"group"
5.000000e+000
0.000000e+000
4.858710e+000
5.981468e-005
-5.981418e-005
"time" 1.430000e-008
"group"
5.000000e+000
0.000000e+000
4.861672e+000
5.858330e-005
-5.858283e-005
"time" 1.435000e-008
"group"
5.000000e+000
0.000000e+000
4.864573e+000
5.737636e-005
-5.737590e-005
"time" 1.440000e-008
"group"
5.000000e+000
0.000000e+000
4.867415e+000
5.619339e-005
-5.619295e-005
"time" 1.445000e-008
"group"
5.000000e+000
0.000000e+000
4.870197e+000
5.503397e-005
-5.503355e-005
"time" 1.450000e-008
"group"
5.000000e+000
0.000000e+000
4.872923e+000
5.389766e-005
-5.389725e-005
"time" 1.455000e-008
"group"
5.000000e+000
0.000000e+000
4.875592e+000
5.278403e-005
-5.278364e-005
"time" 1.460000e-008
"group"
5.000000e+000
0.000000e+000
4.878205e+000
5.169266e-005
-5.169229e-005
"time" 1.465000e-008
"group"
5.000000e+000
0.000000e+000
4.880765e+000
5.062314e-005
-5.062278e-005
"time" 1.470000e-008
"group"
5.000000e+000
0.000000e+000
4.883272e+000
4.957506e-005
-4.957472e-005
"time" 1.475000e-008
"group"
5.000000e+000
0.000000e+000
4.885726e+000
4.854802e-005
-4.854769e-005
"time" 1.480000e-008
"group"
5.000000e+000
0.000000e+000
4.888130e+000